
#(C) 2019 by FIZ Karlsruhe - Leibniz Institute for Information Infrastructure.  All rights reserved.
data_166118-ICSD
_database_code_ICSD 166118
_audit_creation_date 2010-08-01
_chemical_name_systematic 'Nickel oxide'
_chemical_formula_structural 'Ni O'
_chemical_formula_sum 'Ni1 O1'
_chemical_name_structure_type NiO
_exptl_crystal_density_diffrn 6.58
_cell_measurement_temperature 1073.
_publ_section_title

;
Effect of oxygen nonstoichiometry and oxidation state of transition elements
on high-temperature phase transition in A-site deficient La0.95 Ni0.6 Fe0.4
O3-d perovskite
;
loop_
_citation_id
_citation_journal_full
_citation_year
_citation_journal_volume
_citation_page_first
_citation_page_last
_citation_journal_id_ASTM
primary 'Chemistry of Materials' 2009 21 5307 5318 CMATEX
loop_
_publ_author_name
'Konysheva, E.'
'Suard, E.'
'Irvine, J.T.S.'
_cell_length_a 2.9855(4)
_cell_length_b 2.9855(4)
_cell_length_c 2.9855(4)
_cell_angle_alpha 60.09(3)
_cell_angle_beta 60.09(3)
_cell_angle_gamma 60.09(3)
_cell_volume 18.85
_cell_formula_units_Z 1
_symmetry_space_group_name_H-M 'R -3 m R'
_symmetry_Int_Tables_number 166
_refine_ls_R_factor_all 0.0451
loop_
_symmetry_equiv_pos_site_id
_symmetry_equiv_pos_as_xyz
1 '-z, -y, -x'
2 '-z, -x, -y'
3 '-x, -z, -y'
4 '-y, -z, -x'
5 '-y, -x, -z'
6 '-x, -y, -z'
7 'z, y, x'
8 'z, x, y'
9 'x, z, y'
10 'y, z, x'
11 'y, x, z'
12 'x, y, z'
loop_
_atom_type_symbol
_atom_type_oxidation_number
Ni2+ 2
O2- -2
loop_
_atom_site_label
_atom_site_type_symbol
_atom_site_symmetry_multiplicity
_atom_site_Wyckoff_symbol
_atom_site_fract_x
_atom_site_fract_y
_atom_site_fract_z
_atom_site_B_iso_or_equiv
_atom_site_occupancy
_atom_site_attached_hydrogens
Ni1 Ni2+ 1 a 0 0 0 0.030(3) 1. 0
O1 O2- 1 b 0.5 0.5 0.5 0.023(5) 1. 0
#End of TTdata_166118-ICSD